# vtk DataFile Version 3.0
#This file was generated by the deal.II library on 2021/5/31 at 1:59:52
ASCII
DATASET UNSTRUCTURED_GRID

POINTS 8 double
0 0 0
0.25 0 0
0.25 0 0
0.5 0 0
0.5 0 0
0.75 0 0
0.75 0 0
1 0 0

CELLS 4 12
2	0	1
2	2	3
2	4	5
2	6	7

CELL_TYPES 4
 3 3 3 3
POINT_DATA 8
SCALARS solution double 1
LOOKUP_TABLE default
0 0.25 0.25 0.5 0.5 0.75 0.75 1 
